 TITLE = "velocity plot"
 VARIABLES = "X", "Y", "Z", "U", "V", "W", "p", "DX", "DY", "DZ"
 ZONE SOLUTIONTIME=0.000000, NODES=16460 , ELEMENTS=24540, DATAPACKING=POINT, ZONETYPE=FEBRICK
-10.0000000000 -15.0000000000 0.0000000000 0.0000000000 0.0000000000 0.0000000000 11362.0445861044 0.0000000000 0.0000000000 0.0000000000
-0.0000000000 -12.8719569355 10.0000000000 0.9360402806 -0.0005849669 0.0000000000 9266.4867316738 0.0000000000 0.0000000000 0.0000000000
-1.0394679943 -13.5754253211 10.0000000000 1.0505466101 0.0225833968 0.0000000000 9607.2572961423 0.0000000000 0.0000000000 0.0000000000
-1.0000000000 -14.4112432297 10.0000000000 0.8723327839 -0.0169896920 0.0000000000 9595.1496600163 0.0000000000 0.0000000000 0.0000000000
-0.5000000000 -15.0000000000 10.0000000000 1.5000000000 0.0000000000 0.0000000000 9424.4944227832 0.0000000000 0.0000000000 0.0000000000
-0.0000000000 -14.1207562910 10.0000000000 0.8055508884 -0.0016694989 0.0000000000 9266.3531201593 0.0000000000 0.0000000000 0.0000000000
-2.5000000000 -15.0000000000 10.0000000000 1.5000000000 0.0000000000 0.0000000000 10106.5844743905 0.0000000000 0.0000000000 0.0000000000
-1.5000000000 -15.0000000000 10.0000000000 1.5000000000 0.0000000000 0.0000000000 9769.2267890003 0.0000000000 0.0000000000 0.0000000000
-1.7078935989 -14.1819663576 10.0000000000 0.8204524903 0.0296329178 0.0000000000 9843.8942634032 0.0000000000 0.0000000000 0.0000000000
-2.5000000000 -12.9231632372 10.0000000000 0.9189237218 0.0210219943 0.0000000000 10092.9626447706 0.0000000000 0.0000000000 0.0000000000
-2.5000000000 -11.1172182138 10.0000000000 0.9985471854 0.0042489195 0.0000000000 10090.7601656265 0.0000000000 0.0000000000 0.0000000000
0.0000000000 -10.1260598830 10.0000000000 0.9418110297 0.0020793691 0.0000000000 9265.1348910240 0.0000000000 0.0000000000 0.0000000000
-0.9843156564 -11.1657170528 10.0000000000 0.9572944417 -0.0005063163 0.0000000000 9586.8909880261 0.0000000000 0.0000000000 0.0000000000
-1.1552231615 -12.4205166516 10.0000000000 0.9635491845 -0.0035175915 0.0000000000 9642.4062210596 0.0000000000 0.0000000000 0.0000000000
-0.0000000000 -11.6248260913 10.0000000000 0.9380478963 0.0017798478 0.0000000000 9266.5111332854 0.0000000000 0.0000000000 0.0000000000
-4.7095708177 -10.0577607722 5.0000000000 1.2484345461 0.0010383170 0.0000000000 10614.2299520304 0.0000000000 0.0000000000 0.0000000000
-3.3957802369 -10.2542138903 5.0000000000 1.2667908175 0.0016510832 0.0000000000 10218.2794448157 0.0000000000 0.0000000000 0.0000000000
-2.5000000000 -11.1172182138 5.0000000000 1.2724423384 0.0015350766 0.0000000000 9947.6736007547 0.0000000000 0.0000000000 0.0000000000
0.0000000000 -10.1260598830 5.0000000000 1.2926514701 0.0043992437 0.0000000000 9188.0660349672 0.0000000000 0.0000000000 0.0000000000
-0.9843156564 -11.1657170528 5.0000000000 1.2865945826 0.0035564408 0.0000000000 9488.2149595896 0.0000000000 0.0000000000 0.0000000000
-1.1552231615 -12.4205166516 5.0000000000 1.2844319397 0.0034068233 0.0000000000 9541.1170755842 0.0000000000 0.0000000000 0.0000000000
-0.0000000000 -11.6248260913 5.0000000000 1.2931228938 0.0027591417 0.0000000000 9189.1804895634 0.0000000000 0.0000000000 0.0000000000
-0.0000000000 -11.6248260913 0.0000000000 0.0000000000 0.0000000000 0.0000000000 9142.6606698797 0.0000000000 0.0000000000 0.0000000000
-1.1552231615 -12.4205166516 0.0000000000 0.0000000000 0.0000000000 0.0000000000 9478.1761823477 0.0000000000 0.0000000000 0.0000000000
-0.9843156564 -11.1657170528 0.0000000000 0.0000000000 0.0000000000 0.0000000000 9427.9119316415 0.0000000000 0.0000000000 0.0000000000
0.0000000000 -10.1260598830 0.0000000000 0.0000000000 0.0000000000 0.0000000000 9141.5126309052 0.0000000000 0.0000000000 0.0000000000
-2.5000000000 -11.1172182138 0.0000000000 0.0000000000 0.0000000000 0.0000000000 9858.5297394355 0.0000000000 0.0000000000 0.0000000000
-2.5000000000 -12.9231632372 0.0000000000 0.0000000000 0.0000000000 0.0000000000 9859.3496703531 0.0000000000 0.0000000000 0.0000000000
-1.7078935989 -14.1819663576 0.0000000000 0.0000000000 0.0000000000 0.0000000000 9636.1265258712 0.0000000000 0.0000000000 0.0000000000
-1.5000000000 -15.0000000000 0.0000000000 0.0000000000 0.0000000000 0.0000000000 9577.0535458003 0.0000000000 0.0000000000 0.0000000000
-2.5000000000 -15.0000000000 0.0000000000 0.0000000000 0.0000000000 0.0000000000 9860.4074592498 0.0000000000 0.0000000000 0.0000000000
-0.0000000000 -14.1207562910 0.0000000000 0.0000000000 0.0000000000 0.0000000000 9144.0481084969 0.0000000000 0.0000000000 0.0000000000
-0.5000000000 -15.0000000000 0.0000000000 0.0000000000 0.0000000000 0.0000000000 9289.4904315322 0.0000000000 0.0000000000 0.0000000000
-1.0000000000 -14.4112432297 0.0000000000 0.0000000000 0.0000000000 0.0000000000 9433.7272389841 0.0000000000 0.0000000000 0.0000000000
-1.0394679943 -13.5754253211 0.0000000000 0.0000000000 0.0000000000 0.0000000000 9445.2879701829 0.0000000000 0.0000000000 0.0000000000
-0.0000000000 -12.8719569355 0.0000000000 0.0000000000 0.0000000000 0.0000000000 9143.5507451389 0.0000000000 0.0000000000 0.0000000000
-0.0000000000 -12.8719569355 5.0000000000 1.2937600070 0.0022087949 0.0000000000 9189.9722314889 0.0000000000 0.0000000000 0.0000000000
-1.0394679943 -13.5754253211 5.0000000000 1.2589449678 -0.0046702364 0.0000000000 9505.7809243814 0.0000000000 0.0000000000 0.0000000000
-1.0000000000 -14.4112432297 5.0000000000 1.3128146176 0.0057634887 0.0000000000 9493.8789615351 0.0000000000 0.0000000000 0.0000000000
-0.5000000000 -15.0000000000 5.0000000000 1.1250000000 0.0000000000 0.0000000000 9344.0229218970 0.0000000000 0.0000000000 0.0000000000
-0.0000000000 -14.1207562910 5.0000000000 1.3332453315 0.0014509186 0.0000000000 9190.4340206002 0.0000000000 0.0000000000 0.0000000000
-2.5000000000 -15.0000000000 5.0000000000 1.1250000000 0.0000000000 0.0000000000 9945.0041583866 0.0000000000 0.0000000000 0.0000000000
-1.5000000000 -15.0000000000 5.0000000000 1.1250000000 0.0000000000 0.0000000000 9643.1151478636 0.0000000000 0.0000000000 0.0000000000
-1.7078935989 -14.1819663576 5.0000000000 1.3261436134 -0.0064182212 0.0000000000 9704.3587921057 0.0000000000 0.0000000000 0.0000000000
-2.5000000000 -12.9231632372 5.0000000000 1.2937356032 -0.0040566354 0.0000000000 9948.0326441892 0.0000000000 0.0000000000 0.0000000000
-4.3750000000 -15.0000000000 5.0000000000 1.1250000000 0.0000000000 0.0000000000 10517.7743503898 0.0000000000 0.0000000000 0.0000000000
-4.2471976503 -13.2305741935 5.0000000000 1.3062520726 0.0020104254 0.0000000000 10478.5996555024 0.0000000000 0.0000000000 0.0000000000
-4.2471976503 -13.2305741935 0.0000000000 0.0000000000 0.0000000000 0.0000000000 10335.3168550377 0.0000000000 0.0000000000 0.0000000000
-4.3750000000 -15.0000000000 0.0000000000 0.0000000000 0.0000000000 0.0000000000 10369.1295367414 0.0000000000 0.0000000000 0.0000000000
-3.3957802369 -10.2542138903 0.0000000000 0.0000000000 0.0000000000 0.0000000000 10104.2164001784 0.0000000000 0.0000000000 0.0000000000
-4.7095708177 -10.0577607722 0.0000000000 0.0000000000 0.0000000000 0.0000000000 10451.4198721159 0.0000000000 0.0000000000 0.0000000000
-3.7848800142 -11.6384085248 0.0000000000 0.0000000000 0.0000000000 0.0000000000 10210.8420019106 0.0000000000 0.0000000000 0.0000000000
-3.7848800142 -11.6384085248 5.0000000000 1.2504246727 0.0054081062 0.0000000000 10336.0346496313 0.0000000000 0.0000000000 0.0000000000
-3.7643213672 -8.7552290233 5.0000000000 1.2610154757 0.0032293137 0.0000000000 10328.5845066280 0.0000000000 0.0000000000 0.0000000000
-4.8793954667 -8.2614831540 5.0000000000 1.2428581938 0.0028625009 0.0000000000 10664.0632633496 0.0000000000 0.0000000000 0.0000000000
-4.8793954667 -8.2614831540 0.0000000000 0.0000000000 0.0000000000 0.0000000000 10492.4907193540 0.0000000000 0.0000000000 0.0000000000
-3.7643213672 -8.7552290233 0.0000000000 0.0000000000 0.0000000000 0.0000000000 10203.0089738586 0.0000000000 0.0000000000 0.0000000000
-3.3603315610 -7.5225711395 0.0000000000 0.0000000000 0.0000000000 0.0000000000 10092.2558353360 0.0000000000 0.0000000000 0.0000000000
-3.5458364633 -6.3972544082 0.0000000000 0.0000000000 0.0000000000 0.0000000000 10142.2427670244 0.0000000000 0.0000000000 0.0000000000
-3.1824511909 -5.4661150520 0.0000000000 0.0000000000 0.0000000000 0.0000000000 10042.1178997189 0.0000000000 0.0000000000 0.0000000000
-4.7077678193 -6.1503265644 0.0000000000 0.0000000000 0.0000000000 0.0000000000 10448.0804619343 0.0000000000 0.0000000000 0.0000000000
-4.8749312560 -5.2705945663 0.0000000000 0.0000000000 0.0000000000 0.0000000000 10489.0045713388 0.0000000000 0.0000000000 0.0000000000
-4.0234773886 -5.2854548686 0.0000000000 0.0000000000 0.0000000000 0.0000000000 10268.9405547423 0.0000000000 0.0000000000 0.0000000000
-4.4914999745 -7.2852557128 0.0000000000 0.0000000000 0.0000000000 0.0000000000 10393.0129734783 0.0000000000 0.0000000000 0.0000000000
-4.4914999745 -7.2852557128 5.0000000000 1.2507270930 0.0027208839 0.0000000000 10546.8627369726 0.0000000000 0.0000000000 0.0000000000
-4.0234773886 -5.2854548686 5.0000000000 1.2593390146 0.0022740207 0.0000000000 10404.4473139578 0.0000000000 0.0000000000 0.0000000000
-4.8749312560 -5.2705945663 5.0000000000 1.2449606882 0.0014065776 0.0000000000 10661.4781798780 0.0000000000 0.0000000000 0.0000000000
-4.7077678193 -6.1503265644 5.0000000000 1.2486404477 0.0017863490 0.0000000000 10611.4559978492 0.0000000000 0.0000000000 0.0000000000
-3.1824511909 -5.4661150520 5.0000000000 1.2723498309 0.0035669728 0.0000000000 10149.9137926263 0.0000000000 0.0000000000 0.0000000000
-3.5458364633 -6.3972544082 5.0000000000 1.2657998453 0.0028538725 0.0000000000 10260.8296179698 0.0000000000 0.0000000000 0.0000000000
-1.9175937040 -6.5337438982 5.0000000000 1.2843156068 0.0057057788 0.0000000000 9766.8919608919 0.0000000000 0.0000000000 0.0000000000
-2.5000000000 -6.9938391952 5.0000000000 1.2776794268 0.0047678381 0.0000000000 9944.4111893267 0.0000000000 0.0000000000 0.0000000000
-1.6196025559 -5.8530855318 5.0000000000 1.2877097013 0.0067105375 0.0000000000 9675.1980214329 0.0000000000 0.0000000000 0.0000000000
-1.2800453063 -5.1195905870 5.0000000000 1.2928848160 0.0078202681 0.0000000000 9570.2681586471 0.0000000000 0.0000000000 0.0000000000
-2.5000000000 -5.0634104209 5.0000000000 1.2807715613 0.0046907001 0.0000000000 9942.2306182227 0.0000000000 0.0000000000 0.0000000000
-1.9425030521 -5.3194697673 5.0000000000 1.2869407923 0.0055389236 0.0000000000 9772.7453844124 0.0000000000 0.0000000000 0.0000000000
-2.5000000000 -5.9612842725 5.0000000000 1.2789053246 0.0042749357 0.0000000000 9943.2590377694 0.0000000000 0.0000000000 0.0000000000
-0.0468225765 -5.6566841336 5.0000000000 1.2979898327 0.0110708929 0.0000000000 9194.7215933795 0.0000000000 0.0000000000 0.0000000000
-0.6107593080 -5.0251801545 5.0000000000 1.2979698374 0.0104612120 0.0000000000 9365.4181990798 0.0000000000 0.0000000000 0.0000000000
-0.8461464972 -5.7713224131 5.0000000000 1.2938876804 0.0086523269 0.0000000000 9439.1236584034 0.0000000000 0.0000000000 0.0000000000
-1.1783097104 -6.5253842124 5.0000000000 1.2901120101 0.0069442646 0.0000000000 9541.8712412946 0.0000000000 0.0000000000 0.0000000000
-0.7515665540 -7.2617615390 5.0000000000 1.2913226852 0.0068125000 0.0000000000 9413.0725015424 0.0000000000 0.0000000000 0.0000000000
-0.2598931028 -6.5835039546 5.0000000000 1.2952224477 0.0087863962 0.0000000000 9261.9739194452 0.0000000000 0.0000000000 0.0000000000
-0.2598931028 -6.5835039546 0.0000000000 0.0000000000 0.0000000000 0.0000000000 9212.0423769778 0.0000000000 0.0000000000 0.0000000000
-0.7515665540 -7.2617615390 0.0000000000 0.0000000000 0.0000000000 0.0000000000 9356.1943937584 0.0000000000 0.0000000000 0.0000000000
-1.1783097104 -6.5253842124 0.0000000000 0.0000000000 0.0000000000 0.0000000000 9478.4698595420 0.0000000000 0.0000000000 0.0000000000
-0.8461464972 -5.7713224131 0.0000000000 0.0000000000 0.0000000000 0.0000000000 9381.2524903036 0.0000000000 0.0000000000 0.0000000000
-0.6107593080 -5.0251801545 0.0000000000 0.0000000000 0.0000000000 0.0000000000 9311.4473829794 0.0000000000 0.0000000000 0.0000000000
-0.0468225765 -5.6566841336 0.0000000000 0.0000000000 0.0000000000 0.0000000000 9147.6903931769 0.0000000000 0.0000000000 0.0000000000
-2.5000000000 -5.9612842725 0.0000000000 0.0000000000 0.0000000000 0.0000000000 9853.6526191163 0.0000000000 0.0000000000 0.0000000000
-1.9425030521 -5.3194697673 0.0000000000 0.0000000000 0.0000000000 0.0000000000 9695.6633523958 0.0000000000 0.0000000000 0.0000000000
-2.5000000000 -5.0634104209 0.0000000000 0.0000000000 0.0000000000 0.0000000000 9852.8900744332 0.0000000000 0.0000000000 0.0000000000
-1.2800453063 -5.1195905870 0.0000000000 0.0000000000 0.0000000000 0.0000000000 9505.8105314959 0.0000000000 0.0000000000 0.0000000000
-1.6196025559 -5.8530855318 0.0000000000 0.0000000000 0.0000000000 0.0000000000 9604.2719674965 0.0000000000 0.0000000000 0.0000000000
-2.5000000000 -6.9938391952 0.0000000000 0.0000000000 0.0000000000 0.0000000000 9854.6168995455 0.0000000000 0.0000000000 0.0000000000
-1.9175937040 -6.5337438982 0.0000000000 0.0000000000 0.0000000000 0.0000000000 9689.8561816257 0.0000000000 0.0000000000 0.0000000000
-2.5000000000 -8.1812773582 0.0000000000 0.0000000000 0.0000000000 0.0000000000 9855.8315770191 0.0000000000 0.0000000000 0.0000000000
-1.5384496369 -7.6048006675 0.0000000000 0.0000000000 0.0000000000 0.0000000000 9583.4501991959 0.0000000000 0.0000000000 0.0000000000
-1.4380886288 -9.9904106886 0.0000000000 0.0000000000 0.0000000000 0.0000000000 9557.3621843157 0.0000000000 0.0000000000 0.0000000000
-2.5000000000 -9.5468312420 0.0000000000 0.0000000000 0.0000000000 0.0000000000 9857.0866461864 0.0000000000 0.0000000000 0.0000000000
-1.9102518040 -8.8640543001 0.0000000000 0.0000000000 0.0000000000 0.0000000000 9690.4393768547 0.0000000000 0.0000000000 0.0000000000
-1.0082862806 -8.8429478635 0.0000000000 0.0000000000 0.0000000000 0.0000000000 9432.6073707329 0.0000000000 0.0000000000 0.0000000000
-0.6699632028 -7.9756021339 0.0000000000 0.0000000000 0.0000000000 0.0000000000 9333.5779583838 0.0000000000 0.0000000000 0.0000000000
-0.0515135427 -7.5709464433 0.0000000000 0.0000000000 0.0000000000 0.0000000000 9152.7350375581 0.0000000000 0.0000000000 0.0000000000
0.0000000000 -8.5975541561 0.0000000000 0.0000000000 0.0000000000 0.0000000000 9139.2607222556 0.0000000000 0.0000000000 0.0000000000
0.0000000000 -8.5975541561 5.0000000000 1.2940254814 0.0059078631 0.0000000000 9186.2252864936 0.0000000000 0.0000000000 0.0000000000
-0.0515135427 -7.5709464433 5.0000000000 1.2948041453 0.0072738809 0.0000000000 9200.3062861276 0.0000000000 0.0000000000 0.0000000000
-0.6699632028 -7.9756021339 5.0000000000 1.2911866066 0.0062081531 0.0000000000 9389.3238735883 0.0000000000 0.0000000000 0.0000000000
-1.0082862806 -8.8429478635 5.0000000000 1.2882198633 0.0047277676 0.0000000000 9493.4156642755 0.0000000000 0.0000000000 0.0000000000
-1.9102518040 -8.8640543001 5.0000000000 1.2816703672 0.0044410402 0.0000000000 9767.3900871668 0.0000000000 0.0000000000 0.0000000000
-2.5000000000 -9.5468312420 5.0000000000 1.2752634376 0.0038934133 0.0000000000 9946.8188687073 0.0000000000 0.0000000000 0.0000000000
-1.4380886288 -9.9904106886 5.0000000000 1.2850755636 0.0027123605 0.0000000000 9625.1384314423 0.0000000000 0.0000000000 0.0000000000
-1.5384496369 -7.6048006675 5.0000000000 1.2854009022 0.0054564892 0.0000000000 9653.0736423858 0.0000000000 0.0000000000 0.0000000000
-2.5000000000 -8.1812773582 5.0000000000 1.2756456907 0.0035360699 0.0000000000 9945.6636041012 0.0000000000 0.0000000000 0.0000000000
-3.3603315610 -7.5225711395 5.0000000000 1.2672293243 0.0034620282 0.0000000000 10205.5730890638 0.0000000000 0.0000000000 0.0000000000
0.0000000000 -8.5975541561 10.0000000000 0.9401120900 0.0031934249 0.0000000000 9263.9121232074 0.0000000000 0.0000000000 0.0000000000
-0.0515135427 -7.5709464433 10.0000000000 0.9407218115 0.0051000351 0.0000000000 9279.1187857275 0.0000000000 0.0000000000 0.0000000000
-0.6699632028 -7.9756021339 10.0000000000 0.9517037069 0.0036022718 0.0000000000 9481.0781085523 0.0000000000 0.0000000000 0.0000000000
-1.0082862806 -8.8429478635 10.0000000000 0.9570355203 0.0036083183 0.0000000000 9592.8107747176 0.0000000000 0.0000000000 0.0000000000
-1.9102518040 -8.8640543001 10.0000000000 0.9762768720 0.0020070195 0.0000000000 9891.5049124862 0.0000000000 0.0000000000 0.0000000000
-2.5000000000 -9.5468312420 10.0000000000 0.9906735445 -0.0004226241 0.0000000000 10089.4769675682 0.0000000000 0.0000000000 0.0000000000
-1.4380886288 -9.9904106886 10.0000000000 0.9630549545 0.0046564148 0.0000000000 9735.4333517716 0.0000000000 0.0000000000 0.0000000000
-1.5384496369 -7.6048006675 10.0000000000 0.9699352958 0.0031652951 0.0000000000 9766.4441376807 0.0000000000 0.0000000000 0.0000000000
-2.5000000000 -8.1812773582 10.0000000000 0.9944439625 0.0036369842 0.0000000000 10088.6249726878 0.0000000000 0.0000000000 0.0000000000
-1.9175937040 -6.5337438982 10.0000000000 0.9792538409 0.0038133264 0.0000000000 9891.5409802099 0.0000000000 0.0000000000 0.0000000000
-2.5000000000 -6.9938391952 10.0000000000 0.9936973860 0.0022085568 0.0000000000 10087.6512450712 0.0000000000 0.0000000000 0.0000000000
-1.6196025559 -5.8530855318 10.0000000000 0.9745888957 0.0045403336 0.0000000000 9791.0762763409 0.0000000000 0.0000000000 0.0000000000
-1.2800453063 -5.1195905870 10.0000000000 0.9682621433 0.0054769855 0.0000000000 9677.0210425209 0.0000000000 0.0000000000 0.0000000000
-2.5000000000 -5.0634104209 10.0000000000 0.9983164841 0.0021522589 0.0000000000 10085.7830448451 0.0000000000 0.0000000000 0.0000000000
-1.9425030521 -5.3194697673 10.0000000000 0.9809059375 0.0047920695 0.0000000000 9898.3080554734 0.0000000000 0.0000000000 0.0000000000
-2.5000000000 -5.9612842725 10.0000000000 0.9961241867 0.0039536631 0.0000000000 10086.6883291974 0.0000000000 0.0000000000 0.0000000000
-2.5000000000 -4.2826505525 10.0000000000 0.9988743782 0.0031840034 0.0000000000 10085.0079135675 0.0000000000 0.0000000000 0.0000000000
-1.8128673984 -4.5999780244 10.0000000000 0.9808639892 0.0050904551 0.0000000000 9853.7186797347 0.0000000000 0.0000000000 0.0000000000
-1.8638296576 -3.8307404534 10.0000000000 0.9843834988 0.0036841207 0.0000000000 9869.8371421404 0.0000000000 0.0000000000 0.0000000000
-1.4940483023 -4.1851541933 10.0000000000 0.9742683692 0.0052024750 0.0000000000 9746.6064040437 0.0000000000 0.0000000000 0.0000000000
-1.3957745935 -3.4529036190 10.0000000000 0.9761142481 0.0058951862 0.0000000000 9712.6083569278 0.0000000000 0.0000000000 0.0000000000
-1.7647058824 -3.2622024392 10.0000000000 0.9845056998 0.0023693551 0.0000000000 9836.1164616154 0.0000000000 0.0000000000 0.0000000000
-1.7663280479 -2.8198665492 10.0000000000 0.9862151795 0.0015054409 0.0000000000 9836.5424424618 0.0000000000 0.0000000000 0.0000000000
-1.6176470588 -2.5000000000 10.0000000000 0.9849363158 -0.0005657974 0.0000000000 9786.6461504247 0.0000000000 0.0000000000 0.0000000000
-1.3235294118 -2.5000000000 10.0000000000 0.9809059342 0.0011831323 0.0000000000 9687.7661622119 0.0000000000 0.0000000000 0.0000000000
-1.4360720969 -2.8126725243 10.0000000000 0.9804791478 0.0029230922 0.0000000000 9725.5235254237 0.0000000000 0.0000000000 0.0000000000
-1.5076138544 -3.0893488374 10.0000000000 0.9802848888 0.0033605995 0.0000000000 9749.6818389700 0.0000000000 0.0000000000 0.0000000000
-2.5000000000 -3.0133622968 10.0000000000 1.0011976985 0.0000719087 0.0000000000 10084.7189170407 0.0000000000 0.0000000000 0.0000000000
-2.2736957503 -2.7337053825 10.0000000000 0.9957064709 -0.0001255067 0.0000000000 10008.0415250733 0.0000000000 0.0000000000 0.0000000000
-2.2058823529 -2.5000000000 10.0000000000 0.9948226839 -0.0013796431 0.0000000000 9985.2458027358 0.0000000000 0.0000000000 0.0000000000
-2.5000000000 -2.5000000000 10.0000000000 1.0009256339 -0.0018195030 0.0000000000 10085.0602191726 0.0000000000 0.0000000000 0.0000000000
-1.9117647059 -2.5000000000 10.0000000000 0.9896064731 -0.0013510057 0.0000000000 9885.8015474609 0.0000000000 0.0000000000 0.0000000000
-2.0522887452 -2.7044857918 10.0000000000 0.9911421078 -0.0005383632 0.0000000000 9933.1063877447 0.0000000000 0.0000000000 0.0000000000
-2.1037728691 -2.9688570272 10.0000000000 0.9918284003 0.0014469171 0.0000000000 9950.3858890832 0.0000000000 0.0000000000 0.0000000000
-2.1564614138 -3.3333382702 10.0000000000 0.9922040071 0.0026561354 0.0000000000 9968.2500102574 0.0000000000 0.0000000000 0.0000000000
-2.5000000000 -3.6037289311 10.0000000000 1.0000449586 0.0021410278 0.0000000000 10084.7360586815 0.0000000000 0.0000000000 0.0000000000
-2.5000000000 -1.6176470588 10.0000000000 0.9985966477 -0.0057188709 0.0000000000 10086.6352610409 0.0000000000 0.0000000000 0.0000000000
-2.1976164371 -1.8529272779 10.0000000000 0.9934827130 -0.0057212986 0.0000000000 9983.6654658286 0.0000000000 0.0000000000 0.0000000000
-2.2657257209 -1.3803522309 10.0000000000 0.9914620398 -0.0077059227 0.0000000000 10008.1994864438 0.0000000000 0.0000000000 0.0000000000
-2.5000000000 -1.3235294118 10.0000000000 0.9972233534 -0.0064204150 0.0000000000 10087.4474930729 0.0000000000 0.0000000000 0.0000000000
-1.9856132826 -1.2591148110 10.0000000000 0.9849019281 -0.0117461064 0.0000000000 9914.6207598970 0.0000000000 0.0000000000 0.0000000000
-2.1241983112 -1.5914188655 10.0000000000 0.9908932927 -0.0082558738 0.0000000000 9959.7009255151 0.0000000000 0.0000000000 0.0000000000
-1.9216282096 -1.6891398135 10.0000000000 0.9882311766 -0.0083024414 0.0000000000 9891.1248458344 0.0000000000 0.0000000000 0.0000000000
-1.9101404519 -1.9101404521 10.0000000000 0.9889799510 -0.0065701404 0.0000000000 9886.4371241115 0.0000000000 0.0000000000 0.0000000000
-2.1844937302 -2.1844937303 10.0000000000 0.9946535991 -0.0034189042 0.0000000000 9978.4286182397 0.0000000000 0.0000000000 0.0000000000
-1.9292954980 -2.2395249619 10.0000000000 0.9895040954 -0.0028226988 0.0000000000 9892.0840530181 0.0000000000 0.0000000000 0.0000000000
-2.5000000000 -2.2058823529 10.0000000000 1.0004143094 -0.0026613404 0.0000000000 10085.4571100009 0.0000000000 0.0000000000 0.0000000000
-2.5000000000 -1.9117647059 10.0000000000 0.9998024488 -0.0040458833 0.0000000000 10085.9763222006 0.0000000000 0.0000000000 0.0000000000
-1.3876932753 -2.0518662851 10.0000000000 0.9840325923 -0.0046185157 0.0000000000 9710.0227688191 0.0000000000 0.0000000000 0.0000000000
-1.4436835030 -2.2961195662 10.0000000000 0.9835124809 -0.0017445425 0.0000000000 9728.3702942740 0.0000000000 0.0000000000 0.0000000000
-1.6655073770 -2.1562731450 10.0000000000 0.9864773355 -0.0037741923 0.0000000000 9803.3122900237 0.0000000000 0.0000000000 0.0000000000
-1.6125525919 -1.9126543348 10.0000000000 0.9860245941 -0.0069678246 0.0000000000 9786.2002080563 0.0000000000 0.0000000000 0.0000000000
-1.6715723846 -1.6715723849 10.0000000000 0.9850762973 -0.0102988201 0.0000000000 9807.0642951657 0.0000000000 0.0000000000 0.0000000000
-1.6565994949 -1.4629711531 10.0000000000 0.9832746721 -0.0140945603 0.0000000000 9803.2213841561 0.0000000000 0.0000000000 0.0000000000
-1.8482948724 -1.4803445249 10.0000000000 0.9858373495 -0.0118733606 0.0000000000 9867.4334671634 0.0000000000 0.0000000000 0.0000000000
-1.2837301589 -1.2837301593 10.0000000000 0.9803791641 -0.0242324335 0.0000000000 9679.7197405180 0.0000000000 0.0000000000 0.0000000000
-1.5031773832 -1.2836367195 10.0000000000 0.9807949360 -0.0197844535 0.0000000000 9753.1676692566 0.0000000000 0.0000000000 0.0000000000
-1.4641218920 -1.4641218924 10.0000000000 0.9830523394 -0.0160325488 0.0000000000 9738.6304947492 0.0000000000 0.0000000000 0.0000000000
-1.4278494707 -1.7734194067 10.0000000000 0.9847366989 -0.0099748746 0.0000000000 9724.5665185144 0.0000000000 0.0000000000 0.0000000000
-1.2718760678 -0.8526916588 10.0000000000 0.9647422216 -0.0394873502 0.0000000000 9681.6387700622 0.0000000000 0.0000000000 0.0000000000
-1.3191119013 -0.6540891774 10.0000000000 0.9514027019 -0.0388857571 0.0000000000 9700.2472270932 0.0000000000 0.0000000000 0.0000000000
-1.4828538642 -0.7860201793 10.0000000000 0.9634310004 -0.0281499718 0.0000000000 9751.7103914223 0.0000000000 0.0000000000 0.0000000000
-1.4151392468 -0.9353919461 10.0000000000 0.9691041748 -0.0298499701 0.0000000000 9727.6071483680 0.0000000000 0.0000000000 0.0000000000
-1.5529835150 -0.9245785395 10.0000000000 0.9704187588 -0.0253883815 0.0000000000 9773.2154567265 0.0000000000 0.0000000000 0.0000000000
-1.4860294977 -1.0708540699 10.0000000000 0.9755845353 -0.0248370700 0.0000000000 9749.5126675175 0.0000000000 0.0000000000 0.0000000000
-1.2819532895 -1.0428152829 10.0000000000 0.9741820023 -0.0327759734 0.0000000000 9682.0606829898 0.0000000000 0.0000000000 0.0000000000
-1.7090881333 -1.2398419088 10.0000000000 0.9797311300 -0.0165081531 0.0000000000 9822.2739387413 0.0000000000 0.0000000000 0.0000000000
-1.6862175673 -1.0139972003 10.0000000000 0.9741321954 -0.0193158571 0.0000000000 9816.4773254958 0.0000000000 0.0000000000 0.0000000000
-1.6862578363 -0.8168381918 10.0000000000 0.9687202637 -0.0204089859 0.0000000000 9818.1589171883 0.0000000000 0.0000000000 0.0000000000
-1.6627615086 -0.6527422599 10.0000000000 0.9627389837 -0.0210183758 0.0000000000 9811.9014379564 0.0000000000 0.0000000000 0.0000000000
-1.8414991736 -0.6523875520 10.0000000000 0.9693709892 -0.0153749852 0.0000000000 9870.4704013394 0.0000000000 0.0000000000 0.0000000000
-1.8739115538 -0.8405418455 10.0000000000 0.9745370938 -0.0157881328 0.0000000000 9879.9474243604 0.0000000000 0.0000000000 0.0000000000
-1.7798831225 -0.4668844013 10.0000000000 0.9614491870 -0.0136962108 0.0000000000 9851.4335795211 0.0000000000 0.0000000000 0.0000000000
-1.6268902781 -0.3750808440 10.0000000000 0.9518267622 -0.0158189920 0.0000000000 9802.4291555906 0.0000000000 0.0000000000 0.0000000000
-1.5919146526 -0.2361382328 10.0000000000 0.9448980420 -0.0112500320 0.0000000000 9791.9960792307 0.0000000000 0.0000000000 0.0000000000
-1.6547991927 -0.0914928907 10.0000000000 0.9476798080 -0.0040957945 0.0000000000 9812.5722726061 0.0000000000 0.0000000000 0.0000000000
-1.8655756143 -0.1074868658 10.0000000000 0.9601278580 -0.0030902732 0.0000000000 9880.6041952179 0.0000000000 0.0000000000 0.0000000000
-1.7612990395 -0.2611362681 10.0000000000 0.9564388957 -0.0094628447 0.0000000000 9846.3956674752 0.0000000000 0.0000000000 0.0000000000
-1.3828977755 -0.0316510486 10.0000000000 0.9223791949 -0.0024209022 0.0000000000 9726.7305922652 0.0000000000 0.0000000000 0.0000000000
-1.2733284617 -0.0742368811 10.0000000000 0.9114024125 -0.0079164858 0.0000000000 9692.7509504313 0.0000000000 0.0000000000 0.0000000000
-1.3221781175 -0.1559119197 10.0000000000 0.9185811925 -0.0160869442 0.0000000000 9707.4119955517 0.0000000000 0.0000000000 0.0000000000
-1.5172683380 -0.1233312857 10.0000000000 0.9370697516 -0.0092411336 0.0000000000 9768.6727835100 0.0000000000 0.0000000000 0.0000000000
-1.5061095944 -0.0123520765 10.0000000000 0.9356847434 0.0007065723 0.0000000000 9765.3591249147 0.0000000000 0.0000000000 0.0000000000
-1.4386864724 -0.2234275494 10.0000000000 0.9339803977 -0.0146330083 0.0000000000 9743.4197670743 0.0000000000 0.0000000000 0.0000000000
-1.4780410295 -0.3696643426 10.0000000000 0.9412428283 -0.0219287214 0.0000000000 9754.7578090456 0.0000000000 0.0000000000 0.0000000000
-1.5233135466 -0.5415809751 10.0000000000 0.9526033942 -0.0252148113 0.0000000000 9767.6071648270 0.0000000000 0.0000000000 0.0000000000
-1.3171595482 -0.4869738975 10.0000000000 0.9402001329 -0.0343819841 0.0000000000 9702.2015955386 0.0000000000 0.0000000000 0.0000000000
-1.3159231837 -0.3201560728 10.0000000000 0.9270169805 -0.0282738039 0.0000000000 9704.0012095024 0.0000000000 0.0000000000 0.0000000000
-2.5000000000 -0.4411764706 10.0000000000 0.9898967907 -0.0044302370 0.0000000000 10089.7666875053 0.0000000000 0.0000000000 0.0000000000
-2.1900629077 -0.4604616284 10.0000000000 0.9792574376 -0.0070810516 0.0000000000 9986.3803183173 0.0000000000 0.0000000000 0.0000000000
-2.2663641084 -0.2496599850 10.0000000000 0.9793647779 -0.0032902706 0.0000000000 10012.1524811547 0.0000000000 0.0000000000 0.0000000000
-2.3015846175 -0.0790997358 10.0000000000 0.9803642510 -0.0011431407 0.0000000000 10024.0519749352 0.0000000000 0.0000000000 0.0000000000
-2.5000000000 -0.1470588235 10.0000000000 0.9891774694 -0.0011739850 0.0000000000 10090.1607642725 0.0000000000 0.0000000000 0.0000000000
-1.9986454470 -0.3011511099 10.0000000000 0.9689863438 -0.0067382992 0.0000000000 9923.6641835689 0.0000000000 0.0000000000 0.0000000000
-2.1014277949 -0.0951268557 10.0000000000 0.9717656074 -0.0020820747 0.0000000000 9957.8401533083 0.0000000000 0.0000000000 0.0000000000
-1.9923582569 -0.4896898428 10.0000000000 0.9707462410 -0.0100946486 0.0000000000 9920.9556994170 0.0000000000 0.0000000000 0.0000000000
-2.0507911007 -0.6592922631 10.0000000000 0.9763188735 -0.0106109264 0.0000000000 9939.5005723831 0.0000000000 0.0000000000 0.0000000000
-2.0905246503 -0.8699886594 10.0000000000 0.9810295320 -0.0108798353 0.0000000000 9951.6900088022 0.0000000000 0.0000000000 0.0000000000
-1.8881789946 -1.0307472066 10.0000000000 0.9799070392 -0.0150368695 0.0000000000 9883.4242443774 0.0000000000 0.0000000000 0.0000000000
-2.5000000000 -1.0294117647 10.0000000000 0.9948347378 -0.0068533404 0.0000000000 10088.3313232981 0.0000000000 0.0000000000 0.0000000000
-2.2188170109 -1.1100510073 10.0000000000 0.9875215896 -0.0094703665 0.0000000000 9993.4543159103 0.0000000000 0.0000000000 0.0000000000
-2.3177809389 -0.8831564256 10.0000000000 0.9874915242 -0.0086155346 0.0000000000 10027.5640678882 0.0000000000 0.0000000000 0.0000000000
-2.2795630334 -0.6710365789 10.0000000000 0.9835008477 -0.0079666895 0.0000000000 10015.5266509857 0.0000000000 0.0000000000 0.0000000000